TITLE = "T=  0.00000000 "
VARIABLES = "XX","density","velocity    ","pressure","vol","m-flow"
ZONE T= "   0"  I=  100
   0.5000000E-02    0.5002741E+03    0.0000000E+00    0.1000000E+07    0.1499507E-01    0.0000000E+00
   0.1500000E-01    0.5002741E+03    0.0000000E+00    0.1000000E+07    0.1497535E-01    0.0000000E+00
   0.2500000E-01    0.5002741E+03    0.0000000E+00    0.1000000E+07    0.1493600E-01    0.0000000E+00
   0.3500000E-01    0.5002741E+03    0.0000000E+00    0.1000000E+07    0.1487718E-01    0.0000000E+00
   0.4500000E-01    0.5002741E+03    0.0000000E+00    0.1000000E+07    0.1479910E-01    0.0000000E+00
   0.5500000E-01    0.5002741E+03    0.0000000E+00    0.1000000E+07    0.1470208E-01    0.0000000E+00
   0.6500000E-01    0.5002741E+03    0.0000000E+00    0.1000000E+07    0.1458651E-01    0.0000000E+00
   0.7500000E-01    0.5002741E+03    0.0000000E+00    0.1000000E+07    0.1445283E-01    0.0000000E+00
   0.8500000E-01    0.5002741E+03    0.0000000E+00    0.1000000E+07    0.1430159E-01    0.0000000E+00
   0.9500000E-01    0.5002741E+03    0.0000000E+00    0.1000000E+07    0.1413336E-01    0.0000000E+00
   0.1050000E+00    0.5002741E+03    0.0000000E+00    0.1000000E+07    0.1394883E-01    0.0000000E+00
   0.1150000E+00    0.5002741E+03    0.0000000E+00    0.1000000E+07    0.1374870E-01    0.0000000E+00
   0.1250000E+00    0.5002741E+03    0.0000000E+00    0.1000000E+07    0.1353379E-01    0.0000000E+00
   0.1350000E+00    0.5002741E+03    0.0000000E+00    0.1000000E+07    0.1330493E-01    0.0000000E+00
   0.1450000E+00    0.5002741E+03    0.0000000E+00    0.1000000E+07    0.1306302E-01    0.0000000E+00
   0.1550000E+00    0.5002741E+03    0.0000000E+00    0.1000000E+07    0.1280903E-01    0.0000000E+00
   0.1650000E+00    0.5002741E+03    0.0000000E+00    0.1000000E+07    0.1254395E-01    0.0000000E+00
   0.1750000E+00    0.5002741E+03    0.0000000E+00    0.1000000E+07    0.1226883E-01    0.0000000E+00
   0.1850000E+00    0.5002741E+03    0.0000000E+00    0.1000000E+07    0.1198476E-01    0.0000000E+00
   0.1950000E+00    0.5002741E+03    0.0000000E+00    0.1000000E+07    0.1169285E-01    0.0000000E+00
   0.2050000E+00    0.5002741E+03    0.0000000E+00    0.1000000E+07    0.1139427E-01    0.0000000E+00
   0.2150000E+00    0.5002741E+03    0.0000000E+00    0.1000000E+07    0.1109018E-01    0.0000000E+00
   0.2250000E+00    0.5002741E+03    0.0000000E+00    0.1000000E+07    0.1078179E-01    0.0000000E+00
   0.2350000E+00    0.5002741E+03    0.0000000E+00    0.1000000E+07    0.1047031E-01    0.0000000E+00
   0.2450000E+00    0.5002741E+03    0.0000000E+00    0.1000000E+07    0.1015698E-01    0.0000000E+00
   0.2550000E+00    0.5002741E+03    0.0000000E+00    0.1000000E+07    0.9843024E-02    0.0000000E+00
   0.2650000E+00    0.5002741E+03    0.0000000E+00    0.1000000E+07    0.9529691E-02    0.0000000E+00
   0.2750000E+00    0.5002741E+03    0.0000000E+00    0.1000000E+07    0.9218214E-02    0.0000000E+00
   0.2850000E+00    0.5002741E+03    0.0000000E+00    0.1000000E+07    0.8909822E-02    0.0000000E+00
   0.2950000E+00    0.5002741E+03    0.0000000E+00    0.1000000E+07    0.8605733E-02    0.0000000E+00
   0.3050000E+00    0.5002741E+03    0.0000000E+00    0.1000000E+07    0.8307146E-02    0.0000000E+00
   0.3150000E+00    0.5002741E+03    0.0000000E+00    0.1000000E+07    0.8015240E-02    0.0000000E+00
   0.3250000E+00    0.5002741E+03    0.0000000E+00    0.1000000E+07    0.7731168E-02    0.0000000E+00
   0.3350000E+00    0.5002741E+03    0.0000000E+00    0.1000000E+07    0.7456049E-02    0.0000000E+00
   0.3450000E+00    0.5002741E+03    0.0000000E+00    0.1000000E+07    0.7190970E-02    0.0000000E+00
   0.3550000E+00    0.5002741E+03    0.0000000E+00    0.1000000E+07    0.6936977E-02    0.0000000E+00
   0.3650000E+00    0.5002741E+03    0.0000000E+00    0.1000000E+07    0.6695072E-02    0.0000000E+00
   0.3750000E+00    0.5002741E+03    0.0000000E+00    0.1000000E+07    0.6466211E-02    0.0000000E+00
   0.3850000E+00    0.5002741E+03    0.0000000E+00    0.1000000E+07    0.6251295E-02    0.0000000E+00
   0.3950000E+00    0.5002741E+03    0.0000000E+00    0.1000000E+07    0.6051174E-02    0.0000000E+00
   0.4050000E+00    0.5002741E+03    0.0000000E+00    0.1000000E+07    0.5866638E-02    0.0000000E+00
   0.4150000E+00    0.5002741E+03    0.0000000E+00    0.1000000E+07    0.5698413E-02    0.0000000E+00
   0.4250000E+00    0.5002741E+03    0.0000000E+00    0.1000000E+07    0.5547166E-02    0.0000000E+00
   0.4350000E+00    0.5002741E+03    0.0000000E+00    0.1000000E+07    0.5413491E-02    0.0000000E+00
   0.4450000E+00    0.5002741E+03    0.0000000E+00    0.1000000E+07    0.5297917E-02    0.0000000E+00
   0.4550000E+00    0.5002741E+03    0.0000000E+00    0.1000000E+07    0.5200901E-02    0.0000000E+00
   0.4650000E+00    0.5002741E+03    0.0000000E+00    0.1000000E+07    0.5122824E-02    0.0000000E+00
   0.4750000E+00    0.5002741E+03    0.0000000E+00    0.1000000E+07    0.5063995E-02    0.0000000E+00
   0.4850000E+00    0.5002741E+03    0.0000000E+00    0.1000000E+07    0.5024646E-02    0.0000000E+00
   0.4950000E+00    0.5002741E+03    0.0000000E+00    0.1000000E+07    0.5004933E-02    0.0000000E+00
   0.5050000E+00    0.5002741E+03    0.0000000E+00    0.5000000E+06    0.5004933E-02    0.0000000E+00
   0.5150000E+00    0.5002741E+03    0.0000000E+00    0.5000000E+06    0.5024646E-02    0.0000000E+00
   0.5250000E+00    0.5002741E+03    0.0000000E+00    0.5000000E+06    0.5063995E-02    0.0000000E+00
   0.5350000E+00    0.5002741E+03    0.0000000E+00    0.5000000E+06    0.5122824E-02    0.0000000E+00
   0.5450000E+00    0.5002741E+03    0.0000000E+00    0.5000000E+06    0.5200901E-02    0.0000000E+00
   0.5550000E+00    0.5002741E+03    0.0000000E+00    0.5000000E+06    0.5297917E-02    0.0000000E+00
   0.5650000E+00    0.5002741E+03    0.0000000E+00    0.5000000E+06    0.5413491E-02    0.0000000E+00
   0.5750000E+00    0.5002741E+03    0.0000000E+00    0.5000000E+06    0.5547166E-02    0.0000000E+00
   0.5850000E+00    0.5002741E+03    0.0000000E+00    0.5000000E+06    0.5698413E-02    0.0000000E+00
   0.5950000E+00    0.5002741E+03    0.0000000E+00    0.5000000E+06    0.5866638E-02    0.0000000E+00
   0.6050000E+00    0.5002741E+03    0.0000000E+00    0.5000000E+06    0.6051174E-02    0.0000000E+00
   0.6150000E+00    0.5002741E+03    0.0000000E+00    0.5000000E+06    0.6251295E-02    0.0000000E+00
   0.6250000E+00    0.5002741E+03    0.0000000E+00    0.5000000E+06    0.6466211E-02    0.0000000E+00
   0.6350000E+00    0.5002741E+03    0.0000000E+00    0.5000000E+06    0.6695072E-02    0.0000000E+00
   0.6450000E+00    0.5002741E+03    0.0000000E+00    0.5000000E+06    0.6936977E-02    0.0000000E+00
   0.6550000E+00    0.5002741E+03    0.0000000E+00    0.5000000E+06    0.7190970E-02    0.0000000E+00
   0.6650000E+00    0.5002741E+03    0.0000000E+00    0.5000000E+06    0.7456049E-02    0.0000000E+00
   0.6750000E+00    0.5002741E+03    0.0000000E+00    0.5000000E+06    0.7731168E-02    0.0000000E+00
   0.6850000E+00    0.5002741E+03    0.0000000E+00    0.5000000E+06    0.8015240E-02    0.0000000E+00
   0.6950000E+00    0.5002741E+03    0.0000000E+00    0.5000000E+06    0.8307146E-02    0.0000000E+00
   0.7050000E+00    0.5002741E+03    0.0000000E+00    0.5000000E+06    0.8605733E-02    0.0000000E+00
   0.7150000E+00    0.5002741E+03    0.0000000E+00    0.5000000E+06    0.8909822E-02    0.0000000E+00
   0.7250000E+00    0.5002741E+03    0.0000000E+00    0.5000000E+06    0.9218214E-02    0.0000000E+00
   0.7350000E+00    0.5002741E+03    0.0000000E+00    0.5000000E+06    0.9529691E-02    0.0000000E+00
   0.7450000E+00    0.5002741E+03    0.0000000E+00    0.5000000E+06    0.9843024E-02    0.0000000E+00
   0.7550000E+00    0.5002741E+03    0.0000000E+00    0.5000000E+06    0.1015698E-01    0.0000000E+00
   0.7650000E+00    0.5002741E+03    0.0000000E+00    0.5000000E+06    0.1047031E-01    0.0000000E+00
   0.7750000E+00    0.5002741E+03    0.0000000E+00    0.5000000E+06    0.1078179E-01    0.0000000E+00
   0.7850000E+00    0.5002741E+03    0.0000000E+00    0.5000000E+06    0.1109018E-01    0.0000000E+00
   0.7950000E+00    0.5002741E+03    0.0000000E+00    0.5000000E+06    0.1139427E-01    0.0000000E+00
   0.8050000E+00    0.5002741E+03    0.0000000E+00    0.5000000E+06    0.1169285E-01    0.0000000E+00
   0.8150000E+00    0.5002741E+03    0.0000000E+00    0.5000000E+06    0.1198476E-01    0.0000000E+00
   0.8250000E+00    0.5002741E+03    0.0000000E+00    0.5000000E+06    0.1226883E-01    0.0000000E+00
   0.8350000E+00    0.5002741E+03    0.0000000E+00    0.5000000E+06    0.1254395E-01    0.0000000E+00
   0.8450000E+00    0.5002741E+03    0.0000000E+00    0.5000000E+06    0.1280903E-01    0.0000000E+00
   0.8550000E+00    0.5002741E+03    0.0000000E+00    0.5000000E+06    0.1306302E-01    0.0000000E+00
   0.8650000E+00    0.5002741E+03    0.0000000E+00    0.5000000E+06    0.1330493E-01    0.0000000E+00
   0.8750000E+00    0.5002741E+03    0.0000000E+00    0.5000000E+06    0.1353379E-01    0.0000000E+00
   0.8850000E+00    0.5002741E+03    0.0000000E+00    0.5000000E+06    0.1374870E-01    0.0000000E+00
   0.8950000E+00    0.5002741E+03    0.0000000E+00    0.5000000E+06    0.1394883E-01    0.0000000E+00
   0.9050000E+00    0.5002741E+03    0.0000000E+00    0.5000000E+06    0.1413336E-01    0.0000000E+00
   0.9150000E+00    0.5002741E+03    0.0000000E+00    0.5000000E+06    0.1430159E-01    0.0000000E+00
   0.9250000E+00    0.5002741E+03    0.0000000E+00    0.5000000E+06    0.1445283E-01    0.0000000E+00
   0.9350000E+00    0.5002741E+03    0.0000000E+00    0.5000000E+06    0.1458651E-01    0.0000000E+00
   0.9450000E+00    0.5002741E+03    0.0000000E+00    0.5000000E+06    0.1470208E-01    0.0000000E+00
   0.9550000E+00    0.5002741E+03    0.0000000E+00    0.5000000E+06    0.1479910E-01    0.0000000E+00
   0.9650000E+00    0.5002741E+03    0.0000000E+00    0.5000000E+06    0.1487718E-01    0.0000000E+00
   0.9750000E+00    0.5002741E+03    0.0000000E+00    0.5000000E+06    0.1493600E-01    0.0000000E+00
   0.9850000E+00    0.5002741E+03    0.0000000E+00    0.5000000E+06    0.1497535E-01    0.0000000E+00
   0.9950000E+00    0.5002741E+03    0.0000000E+00    0.5000000E+06    0.1499507E-01    0.0000000E+00

TITLE = "T=  0.00006191 "
VARIABLES = "XX","density","velocity    ","pressure","vol","m-flow"
ZONE T= "   1"  I=  100
   0.5000000E-02    0.5002741E+03    0.7616922E-16    0.1000000E+07    0.1499507E-01    0.5713943E-13
   0.1500000E-01    0.5002741E+03   -0.5934014E-15    0.1000000E+07    0.1497535E-01   -0.4445634E-12
   0.2500000E-01    0.5002741E+03    0.5158528E-15    0.1000000E+07    0.1493600E-01    0.3854501E-12
   0.3500000E-01    0.5002741E+03    0.2092246E-15    0.1000000E+07    0.1487718E-01    0.1557189E-12
   0.4500000E-01    0.5002741E+03   -0.9234743E-15    0.1000000E+07    0.1479910E-01   -0.6837039E-12
   0.5500000E-01    0.5002741E+03    0.7214643E-16    0.1000000E+07    0.1470208E-01    0.5306421E-13
   0.6500000E-01    0.5002741E+03    0.1803893E-15    0.1000000E+07    0.1458651E-01    0.1316346E-12
   0.7500000E-01    0.5002741E+03    0.2092246E-15    0.1000000E+07    0.1445283E-01    0.1512773E-12
   0.8500000E-01    0.5002741E+03   -0.3751614E-15    0.1000000E+07    0.1430159E-01   -0.2684172E-12
   0.9500000E-01    0.5002741E+03    0.1731980E-15    0.1000000E+07    0.1413336E-01    0.1224606E-12
   0.1050000E+00    0.5002741E+03   -0.1298403E-15    0.1000000E+07    0.1394883E-01   -0.9060562E-13
   0.1150000E+00    0.5002741E+03    0.2309151E-15    0.1000000E+07    0.1374870E-01    0.1588262E-12
   0.1250000E+00    0.5002741E+03   -0.6492946E-15    0.1000000E+07    0.1353379E-01   -0.4396116E-12
   0.1350000E+00    0.5002741E+03   -0.8652917E-16    0.1000000E+07    0.1330493E-01   -0.5759477E-13
   0.1450000E+00    0.5002741E+03    0.4329251E-15    0.1000000E+07    0.1306302E-01    0.2829205E-12
   0.1550000E+00    0.5002741E+03    0.5771714E-16    0.1000000E+07    0.1280903E-01    0.3698529E-13
   0.1650000E+00    0.5002741E+03   -0.1731514E-15    0.1000000E+07    0.1254395E-01   -0.1086597E-12
   0.1750000E+00    0.5002741E+03    0.7503694E-15    0.1000000E+07    0.1226883E-01    0.4605601E-12
   0.1850000E+00    0.5002741E+03   -0.5771714E-16    0.1000000E+07    0.1198476E-01   -0.3460526E-13
   0.1950000E+00    0.5002741E+03   -0.4905492E-15    0.1000000E+07    0.1169285E-01   -0.2869532E-12
   0.2050000E+00    0.5002741E+03    0.6637937E-15    0.1000000E+07    0.1139427E-01    0.3783794E-12
   0.2150000E+00    0.5002741E+03    0.8657571E-16    0.1000000E+07    0.1109018E-01    0.4803332E-13
   0.2250000E+00    0.5002741E+03    0.2160181E-14    0.1000000E+07    0.1078179E-01    0.1165169E-11
   0.2350000E+00    0.5002741E+03    0.4458386E-13    0.1000000E+07    0.1047031E-01    0.2335313E-10
   0.2450000E+00    0.5002741E+03    0.2772947E-12    0.1000000E+07    0.1015698E-01    0.1409010E-09
   0.2550000E+00    0.5002741E+03    0.2113670E-11    0.1000000E+07    0.9843024E-02    0.1040815E-08
   0.2650000E+00    0.5002741E+03    0.1248598E-10    0.1000000E+07    0.9529691E-02    0.5952638E-08
   0.2750000E+00    0.5002741E+03    0.6467528E-10    0.1000000E+07    0.9218214E-02    0.2982587E-07
   0.2850000E+00    0.5002741E+03    0.3164978E-09    0.1000000E+07    0.8909822E-02    0.1410742E-06
   0.2950000E+00    0.5002741E+03    0.1488188E-08    0.1000000E+07    0.8605733E-02    0.6406985E-06
   0.3050000E+00    0.5002741E+03    0.6731573E-08    0.1000000E+07    0.8307146E-02    0.2797541E-05
   0.3150000E+00    0.5002741E+03    0.2925010E-07    0.1000000E+07    0.8015240E-02    0.1172876E-04
   0.3250000E+00    0.5002741E+03    0.1219024E-06    0.9999999E+06    0.7731168E-02    0.4714823E-04
   0.3350000E+00    0.5002741E+03    0.4864718E-06    0.9999998E+06    0.7456049E-02    0.1814573E-03
   0.3450000E+00    0.5002741E+03    0.1855698E-05    0.9999991E+06    0.7190970E-02    0.6675793E-03
   0.3550000E+00    0.5002741E+03    0.6754046E-05    0.9999969E+06    0.6936977E-02    0.2343917E-02
   0.3650000E+00    0.5002741E+03    0.2340938E-04    0.9999896E+06    0.6695072E-02    0.7840669E-02
   0.3750000E+00    0.5002740E+03    0.7710979E-04    0.9999670E+06    0.6466211E-02    0.2494407E-01
   0.3850000E+00    0.5002739E+03    0.2408878E-03    0.9999009E+06    0.6251295E-02    0.7533429E-01
   0.3950000E+00    0.5002735E+03    0.7121547E-03    0.9997192E+06    0.6051174E-02    0.2155865E+00
   0.4050000E+00    0.5002725E+03    0.1988147E-02    0.9992524E+06    0.5866638E-02    0.5835048E+00
   0.4150000E+00    0.5002699E+03    0.5230147E-02    0.9981346E+06    0.5698413E-02    0.1490982E+01
   0.4250000E+00    0.5002635E+03    0.1293896E-01    0.9956493E+06    0.5547166E-02    0.3590619E+01
   0.4350000E+00    0.5002485E+03    0.3004939E-01    0.9905412E+06    0.5413491E-02    0.8137648E+01
   0.4450000E+00    0.5002159E+03    0.6542050E-01    0.9808754E+06    0.5297917E-02    0.1733710E+02
   0.4550000E+00    0.5001492E+03    0.1334023E+00    0.9641080E+06    0.5200901E-02    0.3470095E+02
   0.4650000E+00    0.5000208E+03    0.2546530E+00    0.9375545E+06    0.5122824E-02    0.6522983E+02
   0.4750000E+00    0.4997954E+03    0.4559487E+00    0.8993626E+06    0.5063995E-02    0.1153989E+03
   0.4850000E+00    0.4993546E+03    0.7563110E+00    0.8495374E+06    0.5024646E-02    0.1897645E+03
   0.4950000E+00    0.4994778E+03    0.1242812E+01    0.7925448E+06    0.5004933E-02    0.3106847E+03
   0.5050000E+00    0.5007927E+03    0.1370678E+01    0.7295706E+06    0.5004933E-02    0.3435513E+03
   0.5150000E+00    0.5013111E+03    0.9034936E+00    0.6613275E+06    0.5024646E-02    0.2275820E+03
   0.5250000E+00    0.5008851E+03    0.5126377E+00    0.5998672E+06    0.5063995E-02    0.1300295E+03
   0.5350000E+00    0.5005730E+03    0.2556247E+00    0.5550193E+06    0.5122824E-02    0.6555104E+02
   0.5450000E+00    0.5004029E+03    0.1150850E+00    0.5271410E+06    0.5200901E-02    0.2995140E+02
   0.5550000E+00    0.5003248E+03    0.4720714E-01    0.5120653E+06    0.5297917E-02    0.1251310E+02
   0.5650000E+00    0.5002925E+03    0.1775214E-01    0.5048647E+06    0.5413491E-02    0.4807862E+01
   0.5750000E+00    0.5002803E+03    0.6150153E-02    0.5017903E+06    0.5547166E-02    0.1706752E+01
   0.5850000E+00    0.5002760E+03    0.1971659E-02    0.5006049E+06    0.5698413E-02    0.5620765E+00
   0.5950000E+00    0.5002746E+03    0.5872968E-03    0.5001887E+06    0.5866638E-02    0.1723675E+00
   0.6050000E+00    0.5002742E+03    0.1631642E-03    0.5000546E+06    0.6051174E-02    0.4939382E-01
   0.6150000E+00    0.5002741E+03    0.4243269E-04    0.5000147E+06    0.6251295E-02    0.1327024E-01
   0.6250000E+00    0.5002741E+03    0.1036479E-04    0.5000037E+06    0.6466211E-02    0.3352882E-02
   0.6350000E+00    0.5002741E+03    0.2385545E-05    0.5000009E+06    0.6695072E-02    0.7990077E-03
   0.6450000E+00    0.5002741E+03    0.5188876E-06    0.5000002E+06    0.6936977E-02    0.1800742E-03
   0.6550000E+00    0.5002741E+03    0.1069594E-06    0.5000000E+06    0.7190970E-02    0.3847815E-04
   0.6650000E+00    0.5002741E+03    0.2094786E-07    0.5000000E+06    0.7456049E-02    0.7813694E-05
   0.6750000E+00    0.5002741E+03    0.3907262E-08    0.5000000E+06    0.7731168E-02    0.1511213E-05
   0.6850000E+00    0.5002741E+03    0.6956381E-09    0.5000000E+06    0.8015240E-02    0.2789381E-06
   0.6950000E+00    0.5002741E+03    0.1184097E-09    0.5000000E+06    0.8307146E-02    0.4920931E-07
   0.7050000E+00    0.5002741E+03    0.1899687E-10    0.5000000E+06    0.8605733E-02    0.8178578E-08
   0.7150000E+00    0.5002741E+03    0.2572405E-11    0.5000000E+06    0.8909822E-02    0.1146612E-08
   0.7250000E+00    0.5002741E+03    0.2716184E-12    0.5000000E+06    0.9218214E-02    0.1252605E-09
   0.7350000E+00    0.5002741E+03    0.3779426E-13    0.5000000E+06    0.9529691E-02    0.1801825E-10
   0.7450000E+00    0.5002741E+03    0.4080114E-15    0.5000000E+06    0.9843024E-02    0.2009134E-12
   0.7550000E+00    0.5002741E+03   -0.2308686E-15    0.5000000E+06    0.1015698E-01   -0.1173106E-12
   0.7650000E+00    0.5002741E+03    0.2888184E-16    0.5000000E+06    0.1047031E-01    0.1512838E-13
   0.7750000E+00    0.5002741E+03    0.4473311E-15    0.5000000E+06    0.1078179E-01    0.2412836E-12
   0.7850000E+00    0.5002741E+03   -0.1875807E-15    0.5000000E+06    0.1109018E-01   -0.1040722E-12
   0.7950000E+00    0.5002741E+03   -0.2885857E-15    0.5000000E+06    0.1139427E-01   -0.1645013E-12
   0.8050000E+00    0.5002741E+03    0.1731747E-15    0.5000000E+06    0.1169285E-01    0.1013008E-12
   0.8150000E+00    0.5002741E+03    0.7216970E-16    0.5000000E+06    0.1198476E-01    0.4327053E-13
   0.8250000E+00    0.5002741E+03    0.1298868E-15    0.5000000E+06    0.1226883E-01    0.7972167E-13
   0.8350000E+00    0.5002741E+03   -0.3895674E-15    0.5000000E+06    0.1254395E-01   -0.2444697E-12
   0.8450000E+00    0.5002741E+03    0.5194775E-15    0.5000000E+06    0.1280903E-01    0.3328825E-12
   0.8550000E+00    0.5002741E+03   -0.2164393E-15    0.5000000E+06    0.1306302E-01   -0.1414451E-12
   0.8650000E+00    0.5002741E+03   -0.1442929E-16    0.5000000E+06    0.1330493E-01   -0.9604292E-14
   0.8750000E+00    0.5002741E+03   -0.1731514E-15    0.5000000E+06    0.1353379E-01   -0.1172340E-12
   0.8850000E+00    0.5002741E+03    0.2958003E-15    0.5000000E+06    0.1374870E-01    0.2034550E-12
   0.8950000E+00    0.5002741E+03   -0.4112230E-15    0.5000000E+06    0.1394883E-01   -0.2869611E-12
   0.9050000E+00    0.5002741E+03    0.4040200E-15    0.5000000E+06    0.1413336E-01    0.2856645E-12
   0.9150000E+00    0.5002741E+03   -0.3246473E-15    0.5000000E+06    0.1430159E-01   -0.2322758E-12
   0.9250000E+00    0.5002741E+03    0.3390998E-15    0.5000000E+06    0.1445283E-01    0.2451820E-12
   0.9350000E+00    0.5002741E+03   -0.5483128E-15    0.5000000E+06    0.1458651E-01   -0.4001177E-12
   0.9450000E+00    0.5002741E+03    0.4509210E-15    0.5000000E+06    0.1470208E-01    0.3316556E-12
   0.9550000E+00    0.5002741E+03   -0.2885275E-16    0.5000000E+06    0.1479910E-01   -0.2136144E-13
   0.9650000E+00    0.5002741E+03   -0.1082138E-15    0.5000000E+06    0.1487718E-01   -0.8053993E-13
   0.9750000E+00    0.5002741E+03   -0.2146327E-15    0.5000000E+06    0.1493600E-01   -0.1603756E-12
   0.9850000E+00    0.5002741E+03    0.2507088E-15    0.5000000E+06    0.1497535E-01    0.1878256E-12
   0.9950000E+00    0.5002741E+03   -0.3760632E-15    0.5000000E+06    0.1499507E-01   -0.2821092E-12

TITLE = "T=  0.00012383 "
VARIABLES = "XX","density","velocity    ","pressure","vol","m-flow"
ZONE T= "   2"  I=  100
   0.5000000E-02    0.5002741E+03    0.7616301E-16    0.1000000E+07    0.1499507E-01    0.5713477E-13
   0.1500000E-01    0.5002741E+03   -0.1185909E-14    0.1000000E+07    0.1497535E-01   -0.8884569E-12
   0.2500000E-01    0.5002741E+03    0.1030920E-14    0.1000000E+07    0.1493600E-01    0.7703133E-12
   0.3500000E-01    0.5002741E+03    0.4181330E-15    0.1000000E+07    0.1487718E-01    0.3112024E-12
   0.4500000E-01    0.5002741E+03   -0.1845552E-14    0.1000000E+07    0.1479910E-01   -0.1366374E-11
   0.5500000E-01    0.5002741E+03    0.1441838E-15    0.1000000E+07    0.1470208E-01    0.1060482E-12
   0.6500000E-01    0.5002741E+03    0.3604827E-15    0.1000000E+07    0.1458651E-01    0.2630533E-12
   0.7500000E-01    0.5002741E+03    0.4181330E-15    0.1000000E+07    0.1445283E-01    0.3023260E-12
   0.8500000E-01    0.5002741E+03   -0.7497557E-15    0.1000000E+07    0.1430159E-01   -0.5364287E-12
   0.9500000E-01    0.5002741E+03    0.3460876E-15    0.1000000E+07    0.1413336E-01    0.2447032E-12
   0.1050000E+00    0.5002741E+03   -0.2595075E-15    0.1000000E+07    0.1394883E-01   -0.1810905E-12
   0.1150000E+00    0.5002741E+03    0.4614347E-15    0.1000000E+07    0.1374870E-01    0.3173803E-12
   0.1250000E+00    0.5002741E+03   -0.1297631E-14    0.1000000E+07    0.1353379E-01   -0.8785744E-12
   0.1350000E+00    0.5002741E+03    0.2576201E-14    0.1000000E+07    0.1330493E-01    0.1714748E-11
   0.1450000E+00    0.5002741E+03    0.5148495E-13    0.1000000E+07    0.1306302E-01    0.3364589E-10
   0.1550000E+00    0.5002741E+03    0.2084544E-12    0.1000000E+07    0.1280903E-01    0.1335781E-09
   0.1650000E+00    0.5002741E+03    0.1081875E-11    0.1000000E+07    0.1254395E-01    0.6789213E-09
   0.1750000E+00    0.5002741E+03    0.4788349E-11    0.1000000E+07    0.1226883E-01    0.2938983E-08
   0.1850000E+00    0.5002741E+03    0.1859084E-10    0.1000000E+07    0.1198476E-01    0.1114644E-07
   0.1950000E+00    0.5002741E+03    0.6767579E-10    0.1000000E+07    0.1169285E-01    0.3958785E-07
   0.2050000E+00    0.5002741E+03    0.2352693E-09    0.1000000E+07    0.1139427E-01    0.1341096E-06
   0.2150000E+00    0.5002741E+03    0.7940552E-09    0.1000000E+07    0.1109018E-01    0.4405520E-06
   0.2250000E+00    0.5002741E+03    0.2611907E-08    0.1000000E+07    0.1078179E-01    0.1408823E-05
   0.2350000E+00    0.5002741E+03    0.8370140E-08    0.1000000E+07    0.1047031E-01    0.4384300E-05
   0.2450000E+00    0.5002741E+03    0.2611736E-07    0.1000000E+07    0.1015698E-01    0.1327094E-04
   0.2550000E+00    0.5002741E+03    0.7930234E-07    0.1000000E+07    0.9843024E-02    0.3905014E-04
   0.2650000E+00    0.5002741E+03    0.2341734E-06    0.9999999E+06    0.9529691E-02    0.1116411E-03
   0.2750000E+00    0.5002741E+03    0.6720642E-06    0.9999997E+06    0.9218214E-02    0.3099314E-03
   0.2850000E+00    0.5002741E+03    0.1873380E-05    0.9999993E+06    0.8909822E-02    0.8350316E-03
   0.2950000E+00    0.5002741E+03    0.5068712E-05    0.9999981E+06    0.8605733E-02    0.2182195E-02
   0.3050000E+00    0.5002741E+03    0.1330259E-04    0.9999953E+06    0.8307146E-02    0.5528355E-02
   0.3150000E+00    0.5002741E+03    0.3384136E-04    0.9999883E+06    0.8015240E-02    0.1356977E-01
   0.3250000E+00    0.5002740E+03    0.8339451E-04    0.9999721E+06    0.7731168E-02    0.3225451E-01
   0.3350000E+00    0.5002739E+03    0.1989343E-03    0.9999357E+06    0.7456049E-02    0.7420381E-01
   0.3450000E+00    0.5002737E+03    0.4590621E-03    0.9998569E+06    0.7190970E-02    0.1651454E+00
   0.3550000E+00    0.5002732E+03    0.1024085E-02    0.9996929E+06    0.6936977E-02    0.3553969E+00
   0.3650000E+00    0.5002721E+03    0.2207128E-02    0.9993651E+06    0.6695072E-02    0.7392460E+00
   0.3750000E+00    0.5002698E+03    0.4592882E-02    0.9987362E+06    0.6466211E-02    0.1485728E+01
   0.3850000E+00    0.5002652E+03    0.9223017E-02    0.9975793E+06    0.6251295E-02    0.2884319E+01
   0.3950000E+00    0.5002563E+03    0.1786433E-01    0.9955419E+06    0.6051174E-02    0.5407778E+01
   0.4050000E+00    0.5002396E+03    0.3336296E-01    0.9921104E+06    0.5866638E-02    0.9791110E+01
   0.4150000E+00    0.5002095E+03    0.6006186E-01    0.9865892E+06    0.5698413E-02    0.1712004E+02
   0.4250000E+00    0.5001570E+03    0.1042184E+00    0.9781121E+06    0.5547166E-02    0.2891493E+02
   0.4350000E+00    0.5000689E+03    0.1743128E+00    0.9657050E+06    0.5413491E-02    0.4718855E+02
   0.4450000E+00    0.4999257E+03    0.2810943E+00    0.9484137E+06    0.5297917E-02    0.7444965E+02
   0.4550000E+00    0.4997016E+03    0.4372314E+00    0.9254940E+06    0.5200901E-02    0.1136320E+03
   0.4650000E+00    0.4993600E+03    0.6560984E+00    0.8966335E+06    0.5122824E-02    0.1678387E+03
   0.4750000E+00    0.4988848E+03    0.9524104E+00    0.8622147E+06    0.5063995E-02    0.2406123E+03
   0.4850000E+00    0.4980545E+03    0.1319627E+01    0.8231689E+06    0.5024646E-02    0.3302430E+03
   0.4950000E+00    0.4984481E+03    0.1848276E+01    0.7826129E+06    0.5004933E-02    0.4610892E+03
   0.5050000E+00    0.5012103E+03    0.2029063E+01    0.7405721E+06    0.5004933E-02    0.5089953E+03
   0.5150000E+00    0.5026608E+03    0.1586265E+01    0.6937598E+06    0.5024646E-02    0.4006417E+03
   0.5250000E+00    0.5020751E+03    0.1126385E+01    0.6456907E+06    0.5063995E-02    0.2863842E+03
   0.5350000E+00    0.5014384E+03    0.7343787E+00    0.6028686E+06    0.5122824E-02    0.1886458E+03
   0.5450000E+00    0.5009554E+03    0.4498162E+00    0.5683226E+06    0.5200901E-02    0.1171960E+03
   0.5550000E+00    0.5006492E+03    0.2603427E+00    0.5427388E+06    0.5297917E-02    0.6905324E+02
   0.5650000E+00    0.5004702E+03    0.1427634E+00    0.5252010E+06    0.5413491E-02    0.3867875E+02
   0.5750000E+00    0.5003717E+03    0.7428003E-01    0.5140237E+06    0.5547166E-02    0.2061750E+02
   0.5850000E+00    0.5003204E+03    0.3671880E-01    0.5073754E+06    0.5698413E-02    0.1046865E+02
   0.5950000E+00    0.5002951E+03    0.1726772E-01    0.5036718E+06    0.5866638E-02    0.5068162E+01
   0.6050000E+00    0.5002832E+03    0.7735206E-02    0.5017333E+06    0.6051174E-02    0.2341680E+01
   0.6150000E+00    0.5002779E+03    0.3304844E-02    0.5007771E+06    0.6251295E-02    0.1033552E+01
   0.6250000E+00    0.5002756E+03    0.1348401E-02    0.5003314E+06    0.6466211E-02    0.4361926E+00
   0.6350000E+00    0.5002747E+03    0.5260439E-03    0.5001347E+06    0.6695072E-02    0.1761918E+00
   0.6450000E+00    0.5002743E+03    0.1964738E-03    0.5000522E+06    0.6936977E-02    0.6818410E-01
   0.6550000E+00    0.5002742E+03    0.7034120E-04    0.5000194E+06    0.7190970E-02    0.2530494E-01
   0.6650000E+00    0.5002741E+03    0.2416990E-04    0.5000069E+06    0.7456049E-02    0.9015537E-02
   0.6750000E+00    0.5002741E+03    0.7980474E-05    0.5000023E+06    0.7731168E-02    0.3086610E-02
   0.6850000E+00    0.5002741E+03    0.2535063E-05    0.5000008E+06    0.8015240E-02    0.1016514E-02
   0.6950000E+00    0.5002741E+03    0.7756363E-06    0.5000002E+06    0.8307146E-02    0.3223428E-03
   0.7050000E+00    0.5002741E+03    0.2288361E-06    0.5000001E+06    0.8605733E-02    0.9851910E-04
   0.7150000E+00    0.5002741E+03    0.6517163E-07    0.5000000E+06    0.8909822E-02    0.2904930E-04
   0.7250000E+00    0.5002741E+03    0.1793547E-07    0.5000000E+06    0.9218214E-02    0.8271180E-05
   0.7350000E+00    0.5002741E+03    0.4774427E-08    0.5000000E+06    0.9529691E-02    0.2276188E-05
   0.7450000E+00    0.5002741E+03    0.1230578E-08    0.5000000E+06    0.9843024E-02    0.6059623E-06
   0.7550000E+00    0.5002741E+03    0.3073581E-09    0.5000000E+06    0.1015698E-01    0.1561770E-06
   0.7650000E+00    0.5002741E+03    0.7417257E-10    0.5000000E+06    0.1047031E-01    0.3885177E-07
   0.7750000E+00    0.5002741E+03    0.1690446E-10    0.5000000E+06    0.1078179E-01    0.9118008E-08
   0.7850000E+00    0.5002741E+03    0.3424116E-11    0.5000000E+06    0.1109018E-01    0.1899744E-08
   0.7950000E+00    0.5002741E+03    0.6016920E-12    0.5000000E+06    0.1139427E-01    0.3429799E-09
   0.8050000E+00    0.5002741E+03    0.1222705E-12    0.5000000E+06    0.1169285E-01    0.7152375E-10
   0.8150000E+00    0.5002741E+03    0.1516794E-13    0.5000000E+06    0.1198476E-01    0.9094189E-11
   0.8250000E+00    0.5002741E+03    0.2595541E-15    0.5000000E+06    0.1226883E-01    0.1593086E-12
   0.8350000E+00    0.5002741E+03   -0.7785692E-15    0.5000000E+06    0.1254395E-01   -0.4885844E-12
   0.8450000E+00    0.5002741E+03    0.1038147E-14    0.5000000E+06    0.1280903E-01    0.6652470E-12
   0.8550000E+00    0.5002741E+03   -0.4325514E-15    0.5000000E+06    0.1306302E-01   -0.2826763E-12
   0.8650000E+00    0.5002741E+03   -0.2883676E-16    0.5000000E+06    0.1330493E-01   -0.1919406E-13
   0.8750000E+00    0.5002741E+03   -0.3460411E-15    0.5000000E+06    0.1353379E-01   -0.2342907E-12
   0.8850000E+00    0.5002741E+03    0.5911535E-15    0.5000000E+06    0.1374870E-01    0.4066025E-12
   0.8950000E+00    0.5002741E+03   -0.8218360E-15    0.5000000E+06    0.1394883E-01   -0.5734965E-12